 Gaussian 16, Revision B.01,
 Gaussian 16:  ES64L-G16RevB.01 20-Dec-2017

 ---------------------------
 #p opt freq rb3lyp/6-31g(d)
 ---------------------------

 -------------------
 Title Card Required
 -------------------
 Symbolic Z-matrix:
 Charge =  0 Multiplicity = 1

 SCF Done:  E(RB3LYP) =  -923.991159984     A.U. after   13 cycles
 SCF Done:  E(RB3LYP) =  -923.995204922     A.U. after   12 cycles
 SCF Done:  E(RB3LYP) =  -923.995860873     A.U. after   12 cycles
 SCF Done:  E(RB3LYP) =  -923.996145825     A.U. after   12 cycles
 SCF Done:  E(RB3LYP) =  -923.996169261     A.U. after   13 cycles
 SCF Done:  E(RB3LYP) =  -923.996557558     A.U. after   12 cycles
 SCF Done:  E(RB3LYP) =  -923.996530299     A.U. after   11 cycles
 SCF Done:  E(RB3LYP) =  -923.996596467     A.U. after   11 cycles
 SCF Done:  E(RB3LYP) =  -923.996592905     A.U. after   10 cycles
 SCF Done:  E(RB3LYP) =  -923.996597068     A.U. after    9 cycles
 SCF Done:  E(RB3LYP) =  -923.996596370     A.U. after    8 cycles
 SCF Done:  E(RB3LYP) =  -923.996602814     A.U. after    8 cycles
 SCF Done:  E(RB3LYP) =  -923.996594346     A.U. after    7 cycles
 SCF Done:  E(RB3LYP) =  -923.996600618     A.U. after    8 cycles
 SCF Done:  E(RB3LYP) =  -923.996599213     A.U. after    8 cycles
 SCF Done:  E(RB3LYP) =  -923.996599687     A.U. after    7 cycles
 Optimization completed.
    -- Stationary point found.
 Normal termination of Gaussian 16 at Tue May 25 23:15:10 2021.

 --------------------------------------------------------------------
 #P Geom=AllCheck Guess=TCheck SCRF=Check GenChk RB3LYP/6-31G(d) Freq
 --------------------------------------------------------------------

 Structure from the checkpoint file:  "4cpp.chk"
 -------------------
 Title Card Required
 -------------------
 Charge =  0 Multiplicity = 1

                         Standard orientation:
 ---------------------------------------------------------------------
 Center     Atomic      Atomic             Coordinates (Angstroms)
 Number     Number       Type             X           Y           Z
 ---------------------------------------------------------------------
      1          6           0       -0.704644   -2.759903   -0.086093
      2          6           0       -2.736913   -0.789531   -0.086079
      3          6           0       -1.201483   -2.238697   -1.298571
      4          6           0       -1.582920   -2.635108    1.015053
      5          6           0       -2.584930   -1.663468    1.015089
      6          6           0       -2.200722   -1.270154   -1.298602
      7          1           0       -0.646099   -2.382975   -2.219934
      8          1           0       -1.368810   -3.149841    1.948525
      9          1           0       -3.105965   -1.465354    1.948591
     10          1           0       -2.362158   -0.719529   -2.219979
     11          6           0        0.789532   -2.736909    0.086080
     12          6           0        2.759905   -0.704643    0.086093
     13          6           0        1.270155   -2.200718    1.298603
     14          6           0        1.663472   -2.584930   -1.015087
     15          6           0        2.635112   -1.582921   -1.015052
     16          6           0        2.238700   -1.201481    1.298570
     17          1           0        0.719527   -2.362154    2.219978
     18          1           0        1.465360   -3.105970   -1.948587
     19          1           0        3.149844   -1.368815   -1.948525
     20          1           0        2.382977   -0.646096    2.219934
     21          6           0        2.736911    0.789532   -0.086080
     22          6           0        0.704644    2.759904   -0.086090
     23          6           0        2.200716    1.270154   -1.298605
     24          6           0        2.584933    1.663469    1.015086
     25          6           0        1.582921    2.635111    1.015052
     26          6           0        1.201480    2.238697   -1.298570
     27          1           0        2.362156    0.719531   -2.219980
     28          1           0        3.105968    1.465354    1.948588
     29          1           0        1.368814    3.149838    1.948528
     30          1           0        0.646094    2.382980   -2.219932
     31          6           0       -0.789531    2.736909    0.086082
     32          6           0       -2.759907    0.704643    0.086092
     33          6           0       -1.663468    2.584928   -1.015088
     34          6           0       -1.270156    2.200717    1.298604
     35          6           0       -2.238703    1.201481    1.298569
     36          6           0       -2.635107    1.582918   -1.015054
     37          1           0       -1.465352    3.105967   -1.948589
     38          1           0       -0.719531    2.362152    2.219979
     39          1           0       -2.382981    0.646096    2.219933
     40          1           0       -3.149837    1.368809   -1.948529
 ---------------------------------------------------------------------

 SCF Done:  E(RB3LYP) =  -923.996599687     A.U. after    1 cycles

 The electronic state is 1-A.
 Alpha  occ. eigenvalues --  -10.20479 -10.20478 -10.20478 -10.20478 -10.20455
 Alpha  occ. eigenvalues --  -10.20453 -10.20453 -10.20452 -10.19255 -10.19255
 Alpha  occ. eigenvalues --  -10.19255 -10.19255 -10.19251 -10.19251 -10.19251
 Alpha  occ. eigenvalues --  -10.19251 -10.19201 -10.19201 -10.19200 -10.19200
 Alpha  occ. eigenvalues --  -10.19195 -10.19195 -10.19195 -10.19195  -0.87953
 Alpha  occ. eigenvalues --   -0.86452  -0.86452  -0.83370  -0.80195  -0.75550
 Alpha  occ. eigenvalues --   -0.74937  -0.74937  -0.74625  -0.74625  -0.73531
 Alpha  occ. eigenvalues --   -0.68738  -0.64508  -0.62963  -0.60286  -0.60286
 Alpha  occ. eigenvalues --   -0.59226  -0.59226  -0.56899  -0.56396  -0.53611
 Alpha  occ. eigenvalues --   -0.50859  -0.50859  -0.48923  -0.47545  -0.45325
 Alpha  occ. eigenvalues --   -0.45325  -0.44034  -0.44034  -0.43316  -0.43102
 Alpha  occ. eigenvalues --   -0.42802  -0.42008  -0.41849  -0.41849  -0.41838
 Alpha  occ. eigenvalues --   -0.40949  -0.39550  -0.39550  -0.39435  -0.36406
 Alpha  occ. eigenvalues --   -0.33691  -0.33691  -0.33214  -0.33214  -0.32349
 Alpha  occ. eigenvalues --   -0.31940  -0.31827  -0.29572  -0.26183  -0.24966
 Alpha  occ. eigenvalues --   -0.24966  -0.23627  -0.22964  -0.22964  -0.16527
 Alpha virt. eigenvalues --   -0.07318  -0.02546  -0.01666  -0.01666   0.00208
 Alpha virt. eigenvalues --    0.00208   0.01692   0.02686   0.06916   0.06916
 Alpha virt. eigenvalues --    0.08599   0.08603   0.09770   0.10668   0.11946

 Mulliken charges:
               1
     1  C    0.080205
     2  C    0.080155
     3  C   -0.158862
     4  C   -0.188694
     5  C   -0.188698
     6  C   -0.158877
     7  H    0.131204
     8  H    0.136183
     9  H    0.136192
    10  H    0.131193
    11  C    0.080152
    12  C    0.080206
    13  C   -0.158877
    14  C   -0.188699
    15  C   -0.188694
    16  C   -0.158861
    17  H    0.131194
    18  H    0.136192
    19  H    0.136183
    20  H    0.131204
    21  C    0.080152
    22  C    0.080207
    23  C   -0.158877
    24  C   -0.188698
    25  C   -0.188695
    26  C   -0.158861
    27  H    0.131194
    28  H    0.136192
    29  H    0.136183
    30  H    0.131204
    31  C    0.080151
    32  C    0.080208
    33  C   -0.188699
    34  C   -0.158878
    35  C   -0.158861
    36  C   -0.188694
    37  H    0.136192
    38  H    0.131194
    39  H    0.131204
    40  H    0.136183
 Sum of Mulliken charges =  -0.00000

 Dipole moment (field-independent basis, Debye):
    X=             -0.0000    Y=             -0.0000    Z=              0.0000  Tot=              0.0000
 Quadrupole moment (field-independent basis, Debye-Ang):
   XX=           -144.0162   YY=           -144.0164   ZZ=           -120.1389
   XY=              0.0000   XZ=             -0.0000   YZ=             -0.0000

  Exact polarizability: 248.188   0.000 248.187   0.000   0.000 214.749
 Approx polarizability: 485.134   0.000 485.133   0.000   0.001 448.290

                      1                      2                      3
                      A                      A                      A
 Frequencies --     56.3102                89.4715               101.2349
 Red. masses --      3.9646                 6.7232                 7.2161
 Frc consts  --      0.0074                 0.0317                 0.0436
 IR Inten    --      0.0000                 0.0638                 0.0000

                      4                      5                      6
                      A                      A                      A
 Frequencies --    163.9675               169.0195               169.0205
 Red. masses --      4.5043                 3.9936                 3.9936
 Frc consts  --      0.0713                 0.0672                 0.0672
 IR Inten    --      0.0000                 0.3010                 0.3010

                      7                      8                      9
                      A                      A                      A
 Frequencies --    225.6207               260.5384               260.5385
 Red. masses --      4.0135                 5.6061                 5.6061
 Frc consts  --      0.1204                 0.2242                 0.2242
 IR Inten    --      0.2496                 0.9048                 0.9047

                     10                     11                     12
                      A                      A                      A
 Frequencies --    314.5409               328.8853               347.9077
 Red. masses --      5.2324                 4.6695                 3.3975
 Frc consts  --      0.3050                 0.2976                 0.2423
 IR Inten    --      0.0000                 0.0000                 0.0000

                     13                     14                     15
                      A                      A                      A
 Frequencies --    351.7621               351.7625               360.1382
 Red. masses --      3.9499                 3.9499                 5.6746
 Frc consts  --      0.2880                 0.2880                 0.4336
 IR Inten    --      0.0044                 0.0044                 0.0000

                     16                     17                     18
                      A                      A                      A
 Frequencies --    424.7845               424.7855               452.1928
 Red. masses --      4.9031                 4.9031                 3.5899
 Frc consts  --      0.5213                 0.5213                 0.4325
 IR Inten    --      8.7765                 8.7764                 0.0000

                     19                     20                     21
                      A                      A                      A
 Frequencies --    461.1994               461.1996               496.1260
 Red. masses --      3.3342                 3.3342                 3.2938
 Frc consts  --      0.4178                 0.4178                 0.4777
 IR Inten    --      0.0228                 0.0228                 0.0000

                     22                     23                     24
                      A                      A                      A
 Frequencies --    543.8511               547.5065               575.8678
 Red. masses --      4.5752                 2.5232                 4.6449
 Frc consts  --      0.7973                 0.4456                 0.9076
 IR Inten    --      0.0000                 1.6865                 0.0000

                     25                     26                     27
                      A                      A                      A
 Frequencies --    590.4707               590.4710               621.8709
 Red. masses --      3.2471                 3.2471                 6.3194
 Frc consts  --      0.6670                 0.6670                 1.4399
 IR Inten    --     13.0052                13.0055                 0.0000

                     28                     29                     30
                      A                      A                      A
 Frequencies --    633.3327               633.3329               645.7850
 Red. masses --      6.0817                 6.0817                 6.3070
 Frc consts  --      1.4373                 1.4373                 1.5497
 IR Inten    --      7.4765                 7.4758                 0.0000

                     31                     32                     33
                      A                      A                      A
 Frequencies --    659.5720               683.1162               683.7941
 Red. masses --      4.3721                 4.9585                 3.8537
 Frc consts  --      1.1206                 1.3633                 1.0616
 IR Inten    --      2.8742                 0.0000                58.7999

                     34                     35                     36
                      A                      A                      A
 Frequencies --    683.7942               728.7909               739.6562
 Red. masses --      3.8537                 6.5575                 1.6821
 Frc consts  --      1.0617                 2.0521                 0.5422
 IR Inten    --     58.8006                 0.0000                 2.7192

                     37                     38                     39
                      A                      A                      A
 Frequencies --    739.6575               741.9977               748.1826
 Red. masses --      1.6822                 1.4387                 1.3197
 Frc consts  --      0.5422                 0.4667                 0.4353
 IR Inten    --      2.7198                 0.0000                 6.2736

                     40                     41                     42
                      A                      A                      A
 Frequencies --    775.8102               775.8106               806.4400
 Red. masses --      3.6718                 3.6719                 3.3199
 Frc consts  --      1.3021                 1.3021                 1.2721
 IR Inten    --     16.8569                16.8569                 0.0000

                     43                     44                     45
                      A                      A                      A
 Frequencies --    825.7858               836.8409               836.8415
 Red. masses --      1.6576                 1.6525                 1.6525
 Frc consts  --      0.6660                 0.6818                 0.6818
 IR Inten    --      0.0000               178.7532               178.7522

                     46                     47                     48
                      A                      A                      A
 Frequencies --    850.2371               922.9352               939.8757
 Red. masses --      1.8931                 1.5887                 1.4463
 Frc consts  --      0.8063                 0.7973                 0.7528
 IR Inten    --     12.5869                 0.0000                 9.4855

                     49                     50                     51
                      A                      A                      A
 Frequencies --    939.8764               943.1289               955.0993
 Red. masses --      1.4463                 1.3638                 1.3058
 Frc consts  --      0.7528                 0.7147                 0.7018
 IR Inten    --      9.4857                 0.0002                 0.0000

                     52                     53                     54
                      A                      A                      A
 Frequencies --    955.4087               955.4096               963.5658
 Red. masses --      1.3399                 1.3399                 1.3310
 Frc consts  --      0.7206                 0.7206                 0.7281
 IR Inten    --      1.5295                 1.5294                 0.0000

                     55                     56                     57
                      A                      A                      A
 Frequencies --    999.8153              1011.0667              1011.0669
 Red. masses --      3.1427                 3.3770                 3.3770
 Frc consts  --      1.8510                 2.0339                 2.0339
 IR Inten    --      0.0000                 1.1520                 1.1521

                     58                     59                     60
                      A                      A                      A
 Frequencies --   1026.6246              1027.0415              1052.2309
 Red. masses --      2.7097                 6.9684                 2.7714
 Frc consts  --      1.6827                 4.3307                 1.8079
 IR Inten    --      0.0087                 1.6793                 6.8373

                     61                     62                     63
                      A                      A                      A
 Frequencies --   1052.2314              1062.3184              1141.3489
 Red. masses --      2.7714                 1.8674                 1.3179
 Frc consts  --      1.8079                 1.2416                 1.0115
 IR Inten    --      6.8375                 0.0000                 0.0000

                     64                     65                     66
                      A                      A                      A
 Frequencies --   1143.7286              1143.7294              1146.2142
 Red. masses --      1.4457                 1.4457                 1.6736
 Frc consts  --      1.1142                 1.1142                 1.2955
 IR Inten    --      1.1389                 1.1390                 7.0192

                     67                     68                     69
                      A                      A                      A
 Frequencies --   1212.5053              1215.8629              1215.8640
 Red. masses --      1.8981                 1.4886                 1.4885
 Frc consts  --      1.6442                 1.2965                 1.2965
 IR Inten    --      0.0000                 0.5569                 0.5566

                     70                     71                     72
                      A                      A                      A
 Frequencies --   1216.0215              1237.2864              1237.2873
 Red. masses --      1.1888                 2.3698                 2.3698
 Frc consts  --      1.0358                 2.1375                 2.1375
 IR Inten    --      0.3789                21.9230                21.9230

                     73                     74                     75
                      A                      A                      A
 Frequencies --   1250.3731              1252.4069              1294.2945
 Red. masses --      2.6744                 2.4110                 6.0673
 Frc consts  --      2.4635                 2.2281                 5.9884
 IR Inten    --      0.0000                 0.0000                 0.0000

                     76                     77                     78
                      A                      A                      A
 Frequencies --   1298.2801              1298.2813              1307.9119
 Red. masses --      2.7621                 2.7621                 3.0602
 Frc consts  --      2.7430                 2.7430                 3.0843
 IR Inten    --      0.2072                 0.2073                 3.0132

                     79                     80                     81
                      A                      A                      A
 Frequencies --   1320.4513              1340.1538              1345.6549
 Red. masses --      1.3812                 1.3065                 1.7893
 Frc consts  --      1.4188                 1.3825                 1.9090
 IR Inten    --      0.0000                 0.0000                 0.2978

                     82                     83                     84
                      A                      A                      A
 Frequencies --   1345.6552              1414.3154              1415.5719
 Red. masses --      1.7893                 2.9051                 2.5046
 Frc consts  --      1.9090                 3.4238                 2.9570
 IR Inten    --      0.2978                13.3630                 2.8578

                     85                     86                     87
                      A                      A                      A
 Frequencies --   1415.5729              1451.0836              1511.1264
 Red. masses --      2.5046                 3.0326                 2.0466
 Frc consts  --      2.9570                 3.7623                 2.7534
 IR Inten    --      2.8582                 0.0000                 0.0000

                     88                     89                     90
                      A                      A                      A
 Frequencies --   1524.5677              1524.5681              1537.1911
 Red. masses --      2.1055                 2.1055                 2.2216
 Frc consts  --      2.8833                 2.8833                 3.0929
 IR Inten    --     11.5026                11.5031                 0.0000

                     91                     92                     93
                      A                      A                      A
 Frequencies --   1542.5322              1571.8679              1571.8682
 Red. masses --      4.1679                 5.7077                 5.7077
 Frc consts  --      5.8431                 8.3089                 8.3090
 IR Inten    --      0.0000                 0.7347                 0.7345

                     94                     95                     96
                      A                      A                      A
 Frequencies --   1588.8831              1606.7937              1606.7942
 Red. masses --      7.1301                 5.0863                 5.0863
 Frc consts  --     10.6054                 7.7371                 7.7371
 IR Inten    --      0.0000                44.9187                44.9189

                     97                     98                     99
                      A                      A                      A
 Frequencies --   1608.2394              1626.0088              3173.8741
 Red. masses --      4.9130                 5.5354                 1.0856
 Frc consts  --      7.4869                 8.6227                 6.4434
 IR Inten    --      0.0000                 3.2963                 0.0001

                    100                    101                    102
                      A                      A                      A
 Frequencies --   3174.3156              3174.8436              3174.8447
 Red. masses --      1.0861                 1.0860                 1.0860
 Frc consts  --      6.4479                 6.4493                 6.4493
 IR Inten    --      0.0006                18.7241                18.7240

                    103                    104                    105
                      A                      A                      A
 Frequencies --   3189.7527              3189.7529              3192.1286
 Red. masses --      1.0910                 1.0910                 1.0936
 Frc consts  --      6.5399                 6.5399                 6.5657
 IR Inten    --      2.9079                 2.9084                 0.0002

                    106                    107                    108
                      A                      A                      A
 Frequencies --   3192.3150              3196.1020              3196.7637
 Red. masses --      1.0932                 1.0855                 1.0853
 Frc consts  --      6.5637                 6.5334                 6.5346
 IR Inten    --     27.8329                 0.0021                 0.0000

                    109                    110                    111
                      A                      A                      A
 Frequencies --   3198.7743              3198.7754              3213.7096
 Red. masses --      1.0877                 1.0877                 1.0926
 Frc consts  --      6.5576                 6.5576                 6.6488
 IR Inten    --     18.7724                18.7704                10.0962

                    112                    113                    114
                      A                      A                      A
 Frequencies --   3213.7117              3213.8340              3215.2903
 Red. masses --      1.0926                 1.0923                 1.0931
 Frc consts  --      6.6488                 6.6469                 6.6579
 IR Inten    --     10.0969                46.3471                 0.0000

 - Thermochemistry -
 -------------------
 Temperature   298.150 Kelvin.  Pressure   1.00000 Atm.
 Atom     1 has atomic number  6 and mass  12.00000

 Molecular mass:   304.12520 amu.
 Principal axes and moments of inertia in atomic units:
                           1         2         3
     Eigenvalues --  5559.770575559.778218749.35471
           X            0.99999  -0.00408  -0.00000
           Y            0.00408   0.99999  -0.00000
           Z            0.00000   0.00000   1.00000
 This molecule is an asymmetric top.
 Rotational symmetry number  1.
 Warning -- assumption of classical behavior for rotation
           may cause significant error
 Rotational temperatures (Kelvin)      0.01558     0.01558     0.00990
 Rotational constants (GHZ):           0.32461     0.32461     0.20627
 Zero-point vibrational energy     838442.3 (Joules/Mol)
                                  200.39251 (Kcal/Mol)
 Warning -- explicit consideration of  26 degrees of freedom as
           vibrations may cause significant error
 Vibrational temperatures:     81.02   128.73   145.65   235.91   243.18
          (Kelvin)            243.18   324.62   374.86   374.86   452.55
                              473.19   500.56   506.11   506.11   518.16
                              611.17   611.17   650.60   663.56   663.56
                              713.81   782.48   787.74   828.55   849.56
                              849.56   894.73   911.22   911.22   929.14
                              948.98   982.85   983.83   983.83  1048.57
                             1064.20  1064.20  1067.57  1076.47  1116.22
                             1116.22  1160.29  1188.12  1204.03  1204.03
                             1223.30  1327.90  1352.27  1352.27  1356.95
                             1374.17  1374.62  1374.62  1386.36  1438.51
                             1454.70  1454.70  1477.08  1477.68  1513.93
                             1513.93  1528.44  1642.15  1645.57  1645.57
                             1649.15  1744.52  1749.36  1749.36  1749.58
                             1780.18  1780.18  1799.01  1801.93  1862.20
                             1867.94  1867.94  1881.79  1899.83  1928.18
                             1936.10  1936.10  2034.88  2036.69  2036.69
                             2087.79  2174.17  2193.51  2193.51  2211.68
                             2219.36  2261.57  2261.57  2286.05  2311.82
                             2311.82  2313.90  2339.46  4566.50  4567.13
                             4567.89  4567.89  4589.34  4589.34  4592.76
                             4593.03  4598.48  4599.43  4602.32  4602.32
                             4623.81  4623.81  4623.99  4626.09

 Zero-point correction=                           0.319346 (Hartree/Particle)
 Thermal correction to Energy=                    0.335524
 Thermal correction to Enthalpy=                  0.336468
 Thermal correction to Gibbs Free Energy=         0.277618
 Sum of electronic and zero-point Energies=           -923.677254
 Sum of electronic and thermal Energies=              -923.661076
 Sum of electronic and thermal Enthalpies=            -923.660132
 Sum of electronic and thermal Free Energies=         -923.718981

                     E (Thermal)             CV                S
                      KCal/Mol        Cal/Mol-Kelvin    Cal/Mol-Kelvin
 Total                  210.544             72.399            123.859
 Electronic               0.000              0.000              0.000
 Translational            0.889              2.981             43.033
 Rotational               0.889              2.981             33.958
 Vibrational            208.767             66.437             46.868
 Vibration     1          0.596              1.975              4.582
 Vibration     2          0.602              1.957              3.672
 Vibration     3          0.604              1.948              3.430
 Vibration     4          0.623              1.887              2.504
 Vibration     5          0.625              1.881              2.446
 Vibration     6          0.625              1.881              2.446
 Vibration     7          0.650              1.802              1.914
 Vibration     8          0.669              1.745              1.658
 Vibration     9          0.669              1.745              1.658
 Vibration    10          0.702              1.646              1.338
 Vibration    11          0.712              1.618              1.266
 Vibration    12          0.726              1.580              1.176
 Vibration    13          0.728              1.572              1.158
 Vibration    14          0.728              1.572              1.158
 Vibration    15          0.735              1.554              1.122
 Vibration    16          0.787              1.416              0.876
 Vibration    17          0.787              1.416              0.876
 Vibration    18          0.811              1.356              0.789
 Vibration    19          0.819              1.336              0.763
 Vibration    20          0.819              1.336              0.763
 Vibration    21          0.852              1.259              0.668
 Vibration    22          0.899              1.153              0.557
 Vibration    23          0.903              1.145              0.549
 Vibration    24          0.932              1.083              0.493
 Vibration    25          0.948              1.052              0.466
 Vibration    26          0.948              1.052              0.466

                           ! Non-Optimized Parameters !
 Normal termination of Gaussian 16 at Tue May 25 23:35:17 2021.
